# LAMMPS data 
93 atoms
2 atom types
0.0 10.1 xlo xhi
0.0 10.1 ylo yhi
0.0 10.1 zlo zhi
0.0 0.0 0.0 xy xz yz

Atoms # metal

1	1	5.36	6	1.81
2	1	3.38	4.28	4.84
3	1	7.34	0.18	2.18
4	1	3.64	3.19	1.08
5	1	3.88	8.05	2.51
6	1	0.97	4.12	0.84
7	1	1.24	5.99	4.76
8	1	10.1	9.09	3.32
9	1	8.06	4.72	1.3
10	1	3.23	3.34	8.26
11	1	5.02	6.21	7.29
12	1	6.25	4.56	4.21
13	1	6.76	8.57	4.07
14	1	5.87	5.84	9.79
15	1	2.18	6.91	6.99
16	1	8.03	4.28	6.57
17	1	2.04	5.49	9.71
18	1	6.66	9.05	1.21
19	1	6.11	3.07	7.96
20	1	8.22	1.38	9.43
21	1	1.31	2.02	7.09
22	1	9.48	2.11	5.92
23	1	1.31	8.49	0.81
24	1	7.63	2.04	0.28
25	1	8.86	9.52	7.4
26	1	5.82	9.18	7.71
27	1	5.94	0.84	5.91
28	1	5.36	2.06	3.14
29	1	1.41	2.32	4.17
30	1	9.69	3.69	3.56
31	1	0.75	9.22	7.39
32	2	5.51	5.51	2.6
33	2	0.24	6.8	3.29
34	2	4.28	4.19	4.46
35	2	0.27	1.04	8.27
36	2	3.84	4.17	1.06
37	2	3	8.17	2.14
38	2	0.43	5.51	4.88
39	2	9.51	9.48	3.94
40	2	9.08	5.89	9.68
41	2	7.92	3.83	0.8
42	2	4.23	3.22	8.21
43	2	5.27	5.9	8.19
44	2	6.93	4.56	4.89
45	2	6.79	8.54	3.09
46	2	3.09	6.66	6.98
47	2	8.4	3.45	6.18
48	2	1.1	5.3	9.72
49	2	7.54	9.11	0.83
50	2	5.85	2.21	7.53
51	2	8.81	2.01	9.89
52	2	2.17	2.43	7.46
53	2	0.64	8.13	1.45
54	2	5.59	8.29	7.44
55	2	5.48	0.06	6.32
56	2	4.74	2.41	2.42
57	2	0.49	9.06	9.13
58	2	1.76	1.44	4.07
59	2	10.05	4.44	4.1
60	2	1.44	8.49	7.32
61	2	6.27	6.22	1.56
62	2	2.96	3.44	4.61
63	2	5.94	9.68	9.37
64	2	2.67	3.09	1.05
65	2	4.27	7.23	2.16
66	2	1.51	4.9	0.53
67	2	1.94	5.36	4.61
68	2	10.02	9.64	2.47
69	2	8.58	4.29	2.01
70	2	3.12	4.28	8.41
71	2	5.12	5.54	6.6
72	2	3.97	9.58	3.89
73	2	6.17	3.63	3.9
74	2	5.96	8.02	4.26
75	2	6.81	5.9	9.83
76	2	1.83	6.59	6.16
77	2	8.74	4.67	7.12
78	2	2.02	6.1	8.92
79	2	6.05	8.48	0.61
80	2	6.81	3.46	7.31
81	2	7.52	1.99	9.1
82	2	1.25	2.26	6.18
83	2	9.31	1.19	6.35
84	2	1.39	9.44	0.85
85	2	7.43	1.82	1.24
86	2	9.15	9.43	8.28
87	2	6.69	9.4	7.47
88	2	5.45	1.07	5.12
89	2	9.73	5.52	1.11
90	2	6.02	1.57	2.67
91	2	9.34	7.2	0.21
92	2	0.92	2.56	3.28
93	2	9.34	3.01	4.17