LAMMPS data file via write_data, version 29 Oct 2020, timestep = 10000

90 atoms
1 atom types

0.0 10.79 xlo xhi
0.0 10.79 ylo yhi
0.0 10.79 zlo zhi

Masses

1 63.546

Atoms # atomic

1	1	3.593933501	0.002777902	0.007119206	0	0	0
2	1	5.497024619	0.023529319	1.888240216	0	0	0
3	1	0.053548505	0.027498367	3.66594998	0	0	0
4	1	0.044601083	0.036729818	7.26596705	0	0	0
5	1	1.723079368	0.048884373	1.791670695	0	0	0
6	1	9.005785257	0.05218952	9.027882437	0	0	0
7	1	9.167147625	0.07576846	1.825048043	0	0	0
8	1	3.739646189	0.106908844	7.386480964	0	0	0
9	1	5.569188542	0.126231483	9.256242008	0	0	0
10	1	9.175117931	0.15903108	5.447309533	0	0	0
11	1	1.705817218	1.706314777	3.467051234	0	0	0
12	1	1.883606861	1.711268535	7.223581817	0	0	0
13	1	3.684410538	1.728580356	1.821626713	0	0	0
14	1	8.958187945	1.730859304	3.661423762	0	0	0
15	1	7.215280848	1.76015015	5.647075646	0	0	0
16	1	3.516459834	1.763076473	5.372682914	0	0	0
17	1	7.256754553	1.789086291	9.101643916	0	0	0
18	1	5.557463577	1.797844631	3.639096511	0	0	0
19	1	3.771413167	1.819154033	9.056246938	0	0	0
20	1	5.562720656	1.841697301	0.097953425	0	0	0
21	1	10.7806039	1.863096902	9.051700389	-1	0	0
22	1	10.76456216	1.876042842	1.856840252	-1	0	0
23	1	7.296027574	1.891687514	1.777959158	0	0	0
24	1	9.102282892	1.896215243	7.253658766	0	0	0
25	1	5.516932651	1.900102636	7.374298242	0	0	0
26	1	1.759369376	3.549909222	9.083543028	0	0	0
27	1	7.172840944	3.575931942	3.699988036	0	0	0
28	1	1.787813689	3.579048994	5.416211669	0	0	0
29	1	3.639353735	3.586805218	7.469858562	0	0	0
30	1	1.85579962	3.586853615	1.865838243	0	0	0
31	1	3.641932948	3.599701405	0.003236713	0	0	0
32	1	3.54427034	3.613574083	3.716361973	0	0	0
33	1	8.899108827	3.631135112	5.399331319	0	0	0
34	1	9.087250863	3.651709013	1.733187826	0	0	0
35	1	7.332314967	3.681165946	7.211588511	0	0	0
36	1	5.367803082	3.685163504	1.925842482	0	0	0
37	1	5.598380573	3.724241046	5.548341569	0	0	0
38	1	9.036458397	3.732544655	9.073914552	0	0	0
39	1	7.114846584	3.773938221	0.046779282	0	0	0
40	1	5.573840587	3.805200681	9.113382469	0	0	0
41	1	0.045983372	5.355117421	9.185508656	0	0	0
42	1	1.842803745	5.35737643	0.063836082	0	0	0
43	1	1.681438158	5.370381884	7.272127289	0	0	0
44	1	3.568948927	5.375657764	5.421156886	0	0	0
45	1	3.594452622	5.400266498	9.063688954	0	0	0
46	1	0.007497123	5.401323533	1.731599739	0	0	0
47	1	9.065246055	5.431940914	7.246848781	0	0	0
48	1	9.03547033	5.451541824	10.76731869	0	0	-1
49	1	5.391981491	5.452790869	0.052996935	0	0	0
50	1	9.364544974	5.45395232	3.665728006	0	0	0
51	1	7.28630034	5.46679348	8.95731646	0	0	0
52	1	5.36813493	5.496820357	7.341571778	0	0	0
53	1	5.481310389	5.49768597	3.76812064	0	0	0
54	1	3.651629331	5.500656913	1.95871192	0	0	0
55	1	7.328300594	5.509758754	1.916386982	0	0	0
56	1	1.672825397	5.513065892	3.554471062	0	0	0
57	1	0.022743383	5.55138043	5.494633599	0	0	0
58	1	7.333700919	5.579869908	5.376165955	0	0	0
59	1	3.614712932	7.104042057	7.210008384	0	0	0
60	1	5.428409802	7.181216891	9.205750277	0	0	0
61	1	9.166977793	7.211330906	9.071220221	0	0	0
62	1	1.773496271	7.226402013	8.989102213	0	0	0
63	1	5.463132829	7.229403571	1.807656958	0	0	0
64	1	3.535094364	7.23931939	0.086720377	0	0	0
65	1	0.00482609	7.242797662	7.366271906	0	0	0
66	1	7.225103103	7.254542496	7.164621662	0	0	0
67	1	1.70924534	7.278173815	1.852716664	0	0	0
68	1	3.615321924	7.27989557	3.399342991	0	0	0
69	1	7.367683617	7.300367867	3.655985714	0	0	0
70	1	9.107650797	7.301591668	1.650545739	0	0	0
71	1	1.827319297	7.306081037	5.470014124	0	0	0
72	1	9.100222782	7.310017442	5.432715975	0	0	0
73	1	5.31911919	7.31348015	5.368011349	0	0	0
74	1	3.808332107	8.978653343	9.153071588	0	0	0
75	1	7.455302758	8.986247828	9.129883756	0	0	0
76	1	1.846649811	9.041446048	3.710599834	0	0	0
77	1	1.875133798	9.056132289	7.39307063	0	0	0
78	1	3.712271602	9.07754722	5.390432854	0	0	0
79	1	5.496897189	9.082559403	3.499857335	0	0	0
80	1	0.129846775	9.086837864	1.776782465	0	0	0
81	1	7.259332343	9.093121545	5.465134997	0	0	0
82	1	5.323058055	9.104502109	7.27309369	0	0	0
83	1	9.246765901	9.122654814	0.060688361	0	0	0
84	1	10.77947296	9.133643369	9.071450907	-1	0	0
85	1	7.277140142	9.149044108	1.78423854	0	0	0
86	1	3.585185953	9.152021944	1.775453277	0	0	0
87	1	9.053596954	9.161393921	3.534770803	0	0	0
88	1	0.049507359	9.184828002	5.438627926	0	0	0
89	1	9.053355145	9.230438438	7.147780444	0	0	0
90	1	7.163586254	10.73432418	7.221004641	0	-1	0

Velocities

1	-2.51225227	-3.455750651	0.615423382
2	-0.210980299	-0.844213302	-2.200981123
3	-0.222826654	1.165234314	1.961062468
4	2.306773168	-2.663806479	2.372372431
5	0.141300087	2.283991085	-0.864746279
6	-1.911073766	3.550482738	-1.283898533
7	-0.156704819	1.53034584	-4.668382908
8	0.454227845	-2.16503191	-0.041929791
9	1.626924441	-2.686911113	-3.167409143
10	2.845350758	2.1003375	-3.052473087
11	0.122354825	0.45971748	-1.218637335
12	-1.331538662	2.361956413	0.746130916
13	-3.538006186	-5.900428776	-0.434097111
14	1.185546514	1.206164705	1.808799679
15	1.037520252	-2.732095935	5.428215687
16	-0.51868479	-0.011300225	-0.339503956
17	2.255946995	1.926984709	1.87351984
18	-2.053671544	-1.148080953	1.343047082
19	-0.300551099	0.811900851	-2.76841435
20	0.610919939	-2.117768751	2.010593252
21	1.112569851	-2.332882992	-1.161994045
22	-2.333540889	0.665288034	2.756221508
23	1.213525533	1.249694514	0.211507144
24	-0.348169111	-3.15992385	1.090409792
25	2.924354786	-0.535800893	2.454227009
26	1.406531883	0.808823966	0.341450076
27	0.531695428	0.743160871	0.936997503
28	-1.05151999	-1.694129563	0.759836887
29	-1.550030208	1.09688842	-0.396175723
30	0.939283264	0.548976724	1.177304756
31	0.189861748	1.202198474	-3.837858414
32	3.145332881	1.006382936	-6.707146489
33	0.00734268	-0.517450739	0.298793933
34	0.09112237	1.415433257	-0.069329331
35	-0.584780451	2.125266894	0.306071024
36	3.21557859	-1.793243438	2.020947202
37	1.831058566	-2.513425694	-0.926811411
38	-0.195940367	4.609186675	-6.454150708
39	1.313630343	2.770368162	-0.128611713
40	3.361820121	-1.481125021	-2.624155579
41	0.250332974	-4.578348461	0.2762132
42	1.46893725	-1.274414724	2.139532806
43	1.908966463	-1.59931939	3.430412884
44	-5.82071531	2.547195681	1.769819328
45	-0.226893565	-2.028401955	1.247578922
46	-1.319114164	-1.225257702	1.966257165
47	-1.168872303	-6.177135512	0.521873176
48	0.447130817	-1.094053418	-2.171629375
49	0.581198597	3.474047124	-2.608019372
50	-1.404771972	1.623005199	-0.0860307
51	-1.263887797	-0.942553168	-1.713686764
52	0.232551666	2.411485296	-1.233110883
53	-2.075087322	4.088425325	1.009553326
54	-1.74078338	0.706385424	0.853215347
55	-2.116093189	-3.348678916	2.23418001
56	0.671371573	1.775996373	-1.525242033
57	-0.57289364	-1.393972157	3.570836741
58	0.8842044	1.749726671	-0.962175645
59	0.793868163	-0.646110743	0.830708827
60	-2.154226485	0.534737099	0.616570174
61	0.829002763	-0.146542939	0.079164262
62	-0.562423654	0.262258007	-0.623775177
63	-2.355378062	1.852731131	0.452646148
64	0.084486297	0.473219904	0.400027348
65	0.899110237	-3.848638191	-3.89023746
66	0.578755295	1.292756416	-0.772684544
67	1.181364727	-0.938392851	0.248451662
68	2.196280688	1.651822648	0.044850903
69	1.008558008	2.485300448	1.732776205
70	2.702180916	0.950054823	0.307501386
71	0.236862148	1.854203336	-0.914619696
72	-1.07757459	-0.107741767	-1.74905264
73	-0.325329892	-2.042211775	-0.886553565
74	1.235205429	0.070254464	0.061922205
75	-2.391977594	2.911343148	-1.618602867
76	2.508047759	0.554173226	-0.175602241
77	-3.085994205	1.200632283	-0.049620427
78	0.522108403	2.351381868	0.471100229
79	-1.499135425	-2.844517556	0.980120629
80	1.825553615	1.361984176	1.815413556
81	2.331431771	-1.20502201	-0.017747372
82	0.100095162	-0.906560054	-0.657106037
83	-1.445401907	-2.660974397	-0.798032774
84	-0.678245056	1.746635778	0.705895925
85	-0.440332306	0.384735693	0.240142558
86	1.834561984	4.552703027	0.347405617
87	-2.420261814	-1.798994618	5.810795429
88	-2.166589347	0.414600858	3.790433136
89	-2.842791945	0.515279256	1.72945209
90	-2.182065341	0.024733953	1.947720255
